+ 1 0 1 cbr 210 ------- 0 0.0 2.0 0 0
- 1 0 1 cbr 210 ------- 0 0.0 2.0 0 0
+ 1.00375 0 1 cbr 210 ------- 0 0.0 2.0 1 1
- 1.00375 0 1 cbr 210 ------- 0 0.0 2.0 1 1
r 1.005884 0 1 cbr 210 ------- 0 0.0 2.0 0 0
+ 1.005884 1 2 cbr 210 ------- 0 0.0 2.0 0 0
- 1.005884 1 2 cbr 210 ------- 0 0.0 2.0 0 0
+ 1.0075 0 1 cbr 210 ------- 0 0.0 2.0 2 2
- 1.0075 0 1 cbr 210 ------- 0 0.0 2.0 2 2
r 1.009634 0 1 cbr 210 ------- 0 0.0 2.0 1 1
+ 1.009634 1 2 cbr 210 ------- 0 0.0 2.0 1 1
- 1.009634 1 2 cbr 210 ------- 0 0.0 2.0 1 1
+ 1.01125 0 1 cbr 210 ------- 0 0.0 2.0 3 3
- 1.01125 0 1 cbr 210 ------- 0 0.0 2.0 3 3
r 1.011768 1 2 cbr 210 ------- 0 0.0 2.0 0 0
r 1.013384 0 1 cbr 210 ------- 0 0.0 2.0 2 2
+ 1.013384 1 2 cbr 210 ------- 0 0.0 2.0 2 2
- 1.013384 1 2 cbr 210 ------- 0 0.0 2.0 2 2
+ 1.015 0 1 cbr 210 ------- 0 0.0 2.0 4 4
- 1.015 0 1 cbr 210 ------- 0 0.0 2.0 4 4
r 1.015518 1 2 cbr 210 ------- 0 0.0 2.0 1 1
r 1.017134 0 1 cbr 210 ------- 0 0.0 2.0 3 3
+ 1.017134 1 2 cbr 210 ------- 0 0.0 2.0 3 3
- 1.017134 1 2 cbr 210 ------- 0 0.0 2.0 3 3
+ 1.01875 0 1 cbr 210 ------- 0 0.0 2.0 5 5
- 1.01875 0 1 cbr 210 ------- 0 0.0 2.0 5 5
r 1.019268 1 2 cbr 210 ------- 0 0.0 2.0 2 2
r 1.020884 0 1 cbr 210 ------- 0 0.0 2.0 4 4
+ 1.020884 1 2 cbr 210 ------- 0 0.0 2.0 4 4
- 1.020884 1 2 cbr 210 ------- 0 0.0 2.0 4 4
+ 1.0225 0 1 cbr 210 ------- 0 0.0 2.0 6 6
- 1.0225 0 1 cbr 210 ------- 0 0.0 2.0 6 6
r 1.023018 1 2 cbr 210 ------- 0 0.0 2.0 3 3
r 1.024634 0 1 cbr 210 ------- 0 0.0 2.0 5 5
+ 1.024634 1 2 cbr 210 ------- 0 0.0 2.0 5 5
- 1.024634 1 2 cbr 210 ------- 0 0.0 2.0 5 5
+ 1.02625 0 1 cbr 210 ------- 0 0.0 2.0 7 7
- 1.02625 0 1 cbr 210 ------- 0 0.0 2.0 7 7
r 1.026768 1 2 cbr 210 ------- 0 0.0 2.0 4 4
r 1.028384 0 1 cbr 210 ------- 0 0.0 2.0 6 6
+ 1.028384 1 2 cbr 210 ------- 0 0.0 2.0 6 6
- 1.028384 1 2 cbr 210 ------- 0 0.0 2.0 6 6
+ 1.03 0 1 cbr 210 ------- 0 0.0 2.0 8 8
- 1.03 0 1 cbr 210 ------- 0 0.0 2.0 8 8
r 1.030518 1 2 cbr 210 ------- 0 0.0 2.0 5 5
r 1.032134 0 1 cbr 210 ------- 0 0.0 2.0 7 7
+ 1.032134 1 2 cbr 210 ------- 0 0.0 2.0 7 7
- 1.032134 1 2 cbr 210 ------- 0 0.0 2.0 7 7
+ 1.03375 0 1 cbr 210 ------- 0 0.0 2.0 9 9
- 1.03375 0 1 cbr 210 ------- 0 0.0 2.0 9 9
r 1.034268 1 2 cbr 210 ------- 0 0.0 2.0 6 6
r 1.035884 0 1 cbr 210 ------- 0 0.0 2.0 8 8
+ 1.035884 1 2 cbr 210 ------- 0 0.0 2.0 8 8
- 1.035884 1 2 cbr 210 ------- 0 0.0 2.0 8 8
+ 1.0375 0 1 cbr 210 ------- 0 0.0 2.0 10 10
- 1.0375 0 1 cbr 210 ------- 0 0.0 2.0 10 10
r 1.038018 1 2 cbr 210 ------- 0 0.0 2.0 7 7
r 1.039634 0 1 cbr 210 ------- 0 0.0 2.0 9 9
+ 1.039634 1 2 cbr 210 ------- 0 0.0 2.0 9 9
- 1.039634 1 2 cbr 210 ------- 0 0.0 2.0 9 9
+ 1.04125 0 1 cbr 210 ------- 0 0.0 2.0 11 11
- 1.04125 0 1 cbr 210 ------- 0 0.0 2.0 11 11
r 1.041768 1 2 cbr 210 ------- 0 0.0 2.0 8 8
r 1.043384 0 1 cbr 210 ------- 0 0.0 2.0 10 10
+ 1.043384 1 2 cbr 210 ------- 0 0.0 2.0 10 10
- 1.043384 1 2 cbr 210 ------- 0 0.0 2.0 10 10
+ 1.045 0 1 cbr 210 ------- 0 0.0 2.0 12 12
- 1.045 0 1 cbr 210 ------- 0 0.0 2.0 12 12
r 1.045518 1 2 cbr 210 ------- 0 0.0 2.0 9 9
r 1.047134 0 1 cbr 210 ------- 0 0.0 2.0 11 11
+ 1.047134 1 2 cbr 210 ------- 0 0.0 2.0 11 11
- 1.047134 1 2 cbr 210 ------- 0 0.0 2.0 11 11
+ 1.04875 0 1 cbr 210 ------- 0 0.0 2.0 13 13
- 1.04875 0 1 cbr 210 ------- 0 0.0 2.0 13 13
r 1.049268 1 2 cbr 210 ------- 0 0.0 2.0 10 10
r 1.050884 0 1 cbr 210 ------- 0 0.0 2.0 12 12
+ 1.050884 1 2 cbr 210 ------- 0 0.0 2.0 12 12
- 1.050884 1 2 cbr 210 ------- 0 0.0 2.0 12 12
+ 1.0525 0 1 cbr 210 ------- 0 0.0 2.0 14 14
- 1.0525 0 1 cbr 210 ------- 0 0.0 2.0 14 14
r 1.053018 1 2 cbr 210 ------- 0 0.0 2.0 11 11
r 1.054634 0 1 cbr 210 ------- 0 0.0 2.0 13 13
+ 1.054634 1 2 cbr 210 ------- 0 0.0 2.0 13 13
- 1.054634 1 2 cbr 210 ------- 0 0.0 2.0 13 13
+ 1.05625 0 1 cbr 210 ------- 0 0.0 2.0 15 15
- 1.05625 0 1 cbr 210 ------- 0 0.0 2.0 15 15
r 1.056768 1 2 cbr 210 ------- 0 0.0 2.0 12 12
r 1.058384 0 1 cbr 210 ------- 0 0.0 2.0 14 14
+ 1.058384 1 2 cbr 210 ------- 0 0.0 2.0 14 14
- 1.058384 1 2 cbr 210 ------- 0 0.0 2.0 14 14
+ 1.06 0 1 cbr 210 ------- 0 0.0 2.0 16 16
- 1.06 0 1 cbr 210 ------- 0 0.0 2.0 16 16
r 1.060518 1 2 cbr 210 ------- 0 0.0 2.0 13 13
r 1.062134 0 1 cbr 210 ------- 0 0.0 2.0 15 15
+ 1.062134 1 2 cbr 210 ------- 0 0.0 2.0 15 15
- 1.062134 1 2 cbr 210 ------- 0 0.0 2.0 15 15
+ 1.06375 0 1 cbr 210 ------- 0 0.0 2.0 17 17
- 1.06375 0 1 cbr 210 ------- 0 0.0 2.0 17 17
r 1.064268 1 2 cbr 210 ------- 0 0.0 2.0 14 14
r 1.065884 0 1 cbr 210 ------- 0 0.0 2.0 16 16
+ 1.065884 1 2 cbr 210 ------- 0 0.0 2.0 16 16
- 1.065884 1 2 cbr 210 ------- 0 0.0 2.0 16 16
+ 1.0675 0 1 cbr 210 ------- 0 0.0 2.0 18 18
- 1.0675 0 1 cbr 210 ------- 0 0.0 2.0 18 18
r 1.068018 1 2 cbr 210 ------- 0 0.0 2.0 15 15
r 1.069634 0 1 cbr 210 ------- 0 0.0 2.0 17 17
+ 1.069634 1 2 cbr 210 ------- 0 0.0 2.0 17 17
- 1.069634 1 2 cbr 210 ------- 0 0.0 2.0 17 17
+ 1.07125 0 1 cbr 210 ------- 0 0.0 2.0 19 19
- 1.07125 0 1 cbr 210 ------- 0 0.0 2.0 19 19
r 1.071768 1 2 cbr 210 ------- 0 0.0 2.0 16 16
r 1.073384 0 1 cbr 210 ------- 0 0.0 2.0 18 18
+ 1.073384 1 2 cbr 210 ------- 0 0.0 2.0 18 18
- 1.073384 1 2 cbr 210 ------- 0 0.0 2.0 18 18
+ 1.075 0 1 cbr 210 ------- 0 0.0 2.0 20 20
- 1.075 0 1 cbr 210 ------- 0 0.0 2.0 20 20
r 1.075518 1 2 cbr 210 ------- 0 0.0 2.0 17 17
r 1.077134 0 1 cbr 210 ------- 0 0.0 2.0 19 19
+ 1.077134 1 2 cbr 210 ------- 0 0.0 2.0 19 19
- 1.077134 1 2 cbr 210 ------- 0 0.0 2.0 19 19
+ 1.07875 0 1 cbr 210 ------- 0 0.0 2.0 21 21
- 1.07875 0 1 cbr 210 ------- 0 0.0 2.0 21 21
r 1.079268 1 2 cbr 210 ------- 0 0.0 2.0 18 18
r 1.080884 0 1 cbr 210 ------- 0 0.0 2.0 20 20
+ 1.080884 1 2 cbr 210 ------- 0 0.0 2.0 20 20
- 1.080884 1 2 cbr 210 ------- 0 0.0 2.0 20 20
+ 1.0825 0 1 cbr 210 ------- 0 0.0 2.0 22 22
- 1.0825 0 1 cbr 210 ------- 0 0.0 2.0 22 22
r 1.083018 1 2 cbr 210 ------- 0 0.0 2.0 19 19
r 1.084634 0 1 cbr 210 ------- 0 0.0 2.0 21 21
+ 1.084634 1 2 cbr 210 ------- 0 0.0 2.0 21 21
- 1.084634 1 2 cbr 210 ------- 0 0.0 2.0 21 21
+ 1.08625 0 1 cbr 210 ------- 0 0.0 2.0 23 23
- 1.08625 0 1 cbr 210 ------- 0 0.0 2.0 23 23
r 1.086768 1 2 cbr 210 ------- 0 0.0 2.0 20 20
r 1.088384 0 1 cbr 210 ------- 0 0.0 2.0 22 22
+ 1.088384 1 2 cbr 210 ------- 0 0.0 2.0 22 22
- 1.088384 1 2 cbr 210 ------- 0 0.0 2.0 22 22
+ 1.09 0 1 cbr 210 ------- 0 0.0 2.0 24 24
- 1.09 0 1 cbr 210 ------- 0 0.0 2.0 24 24
r 1.090518 1 2 cbr 210 ------- 0 0.0 2.0 21 21
r 1.092134 0 1 cbr 210 ------- 0 0.0 2.0 23 23
+ 1.092134 1 2 cbr 210 ------- 0 0.0 2.0 23 23
- 1.092134 1 2 cbr 210 ------- 0 0.0 2.0 23 23
+ 1.09375 0 1 cbr 210 ------- 0 0.0 2.0 25 25
- 1.09375 0 1 cbr 210 ------- 0 0.0 2.0 25 25
r 1.094268 1 2 cbr 210 ------- 0 0.0 2.0 22 22
r 1.095884 0 1 cbr 210 ------- 0 0.0 2.0 24 24
+ 1.095884 1 2 cbr 210 ------- 0 0.0 2.0 24 24
- 1.095884 1 2 cbr 210 ------- 0 0.0 2.0 24 24
+ 1.0975 0 1 cbr 210 ------- 0 0.0 2.0 26 26
- 1.0975 0 1 cbr 210 ------- 0 0.0 2.0 26 26
r 1.098018 1 2 cbr 210 ------- 0 0.0 2.0 23 23
r 1.099634 0 1 cbr 210 ------- 0 0.0 2.0 25 25
+ 1.099634 1 2 cbr 210 ------- 0 0.0 2.0 25 25
- 1.099634 1 2 cbr 210 ------- 0 0.0 2.0 25 25
+ 1.10125 0 1 cbr 210 ------- 0 0.0 2.0 27 27
- 1.10125 0 1 cbr 210 ------- 0 0.0 2.0 27 27
r 1.101768 1 2 cbr 210 ------- 0 0.0 2.0 24 24
r 1.103384 0 1 cbr 210 ------- 0 0.0 2.0 26 26
+ 1.103384 1 2 cbr 210 ------- 0 0.0 2.0 26 26
- 1.103384 1 2 cbr 210 ------- 0 0.0 2.0 26 26
+ 1.105 0 1 cbr 210 ------- 0 0.0 2.0 28 28
- 1.105 0 1 cbr 210 ------- 0 0.0 2.0 28 28
r 1.105518 1 2 cbr 210 ------- 0 0.0 2.0 25 25
r 1.107134 0 1 cbr 210 ------- 0 0.0 2.0 27 27
+ 1.107134 1 2 cbr 210 ------- 0 0.0 2.0 27 27
- 1.107134 1 2 cbr 210 ------- 0 0.0 2.0 27 27
+ 1.10875 0 1 cbr 210 ------- 0 0.0 2.0 29 29
- 1.10875 0 1 cbr 210 ------- 0 0.0 2.0 29 29
r 1.109268 1 2 cbr 210 ------- 0 0.0 2.0 26 26
r 1.110884 0 1 cbr 210 ------- 0 0.0 2.0 28 28
+ 1.110884 1 2 cbr 210 ------- 0 0.0 2.0 28 28
- 1.110884 1 2 cbr 210 ------- 0 0.0 2.0 28 28
+ 1.1125 0 1 cbr 210 ------- 0 0.0 2.0 30 30
- 1.1125 0 1 cbr 210 ------- 0 0.0 2.0 30 30
r 1.113018 1 2 cbr 210 ------- 0 0.0 2.0 27 27
r 1.114634 0 1 cbr 210 ------- 0 0.0 2.0 29 29
+ 1.114634 1 2 cbr 210 ------- 0 0.0 2.0 29 29
- 1.114634 1 2 cbr 210 ------- 0 0.0 2.0 29 29
+ 1.11625 0 1 cbr 210 ------- 0 0.0 2.0 31 31
- 1.11625 0 1 cbr 210 ------- 0 0.0 2.0 31 31
r 1.116768 1 2 cbr 210 ------- 0 0.0 2.0 28 28
r 1.118384 0 1 cbr 210 ------- 0 0.0 2.0 30 30
+ 1.118384 1 2 cbr 210 ------- 0 0.0 2.0 30 30
- 1.118384 1 2 cbr 210 ------- 0 0.0 2.0 30 30
+ 1.12 0 1 cbr 210 ------- 0 0.0 2.0 32 32
- 1.12 0 1 cbr 210 ------- 0 0.0 2.0 32 32
r 1.120518 1 2 cbr 210 ------- 0 0.0 2.0 29 29
r 1.122134 0 1 cbr 210 ------- 0 0.0 2.0 31 31
+ 1.122134 1 2 cbr 210 ------- 0 0.0 2.0 31 31
- 1.122134 1 2 cbr 210 ------- 0 0.0 2.0 31 31
+ 1.12375 0 1 cbr 210 ------- 0 0.0 2.0 33 33
- 1.12375 0 1 cbr 210 ------- 0 0.0 2.0 33 33
r 1.124268 1 2 cbr 210 ------- 0 0.0 2.0 30 30
r 1.125884 0 1 cbr 210 ------- 0 0.0 2.0 32 32
+ 1.125884 1 2 cbr 210 ------- 0 0.0 2.0 32 32
- 1.125884 1 2 cbr 210 ------- 0 0.0 2.0 32 32
+ 1.1275 0 1 cbr 210 ------- 0 0.0 2.0 34 34
- 1.1275 0 1 cbr 210 ------- 0 0.0 2.0 34 34
r 1.128018 1 2 cbr 210 ------- 0 0.0 2.0 31 31
r 1.129634 0 1 cbr 210 ------- 0 0.0 2.0 33 33
+ 1.129634 1 2 cbr 210 ------- 0 0.0 2.0 33 33
- 1.129634 1 2 cbr 210 ------- 0 0.0 2.0 33 33
+ 1.13125 0 1 cbr 210 ------- 0 0.0 2.0 35 35
- 1.13125 0 1 cbr 210 ------- 0 0.0 2.0 35 35
r 1.131768 1 2 cbr 210 ------- 0 0.0 2.0 32 32
r 1.133384 0 1 cbr 210 ------- 0 0.0 2.0 34 34
+ 1.133384 1 2 cbr 210 ------- 0 0.0 2.0 34 34
- 1.133384 1 2 cbr 210 ------- 0 0.0 2.0 34 34
+ 1.135 0 1 cbr 210 ------- 0 0.0 2.0 36 36
- 1.135 0 1 cbr 210 ------- 0 0.0 2.0 36 36
r 1.135518 1 2 cbr 210 ------- 0 0.0 2.0 33 33
r 1.137134 0 1 cbr 210 ------- 0 0.0 2.0 35 35
+ 1.137134 1 2 cbr 210 ------- 0 0.0 2.0 35 35
- 1.137134 1 2 cbr 210 ------- 0 0.0 2.0 35 35
+ 1.13875 0 1 cbr 210 ------- 0 0.0 2.0 37 37
- 1.13875 0 1 cbr 210 ------- 0 0.0 2.0 37 37
r 1.139268 1 2 cbr 210 ------- 0 0.0 2.0 34 34
r 1.140884 0 1 cbr 210 ------- 0 0.0 2.0 36 36
+ 1.140884 1 2 cbr 210 ------- 0 0.0 2.0 36 36
- 1.140884 1 2 cbr 210 ------- 0 0.0 2.0 36 36
+ 1.1425 0 1 cbr 210 ------- 0 0.0 2.0 38 38
- 1.1425 0 1 cbr 210 ------- 0 0.0 2.0 38 38
r 1.143018 1 2 cbr 210 ------- 0 0.0 2.0 35 35
r 1.144634 0 1 cbr 210 ------- 0 0.0 2.0 37 37
+ 1.144634 1 2 cbr 210 ------- 0 0.0 2.0 37 37
- 1.144634 1 2 cbr 210 ------- 0 0.0 2.0 37 37
+ 1.14625 0 1 cbr 210 ------- 0 0.0 2.0 39 39
- 1.14625 0 1 cbr 210 ------- 0 0.0 2.0 39 39
r 1.146768 1 2 cbr 210 ------- 0 0.0 2.0 36 36
r 1.148384 0 1 cbr 210 ------- 0 0.0 2.0 38 38
+ 1.148384 1 2 cbr 210 ------- 0 0.0 2.0 38 38
- 1.148384 1 2 cbr 210 ------- 0 0.0 2.0 38 38
+ 1.15 0 1 cbr 210 ------- 0 0.0 2.0 40 40
- 1.15 0 1 cbr 210 ------- 0 0.0 2.0 40 40
r 1.150518 1 2 cbr 210 ------- 0 0.0 2.0 37 37
r 1.152134 0 1 cbr 210 ------- 0 0.0 2.0 39 39
+ 1.152134 1 2 cbr 210 ------- 0 0.0 2.0 39 39
- 1.152134 1 2 cbr 210 ------- 0 0.0 2.0 39 39
+ 1.15375 0 1 cbr 210 ------- 0 0.0 2.0 41 41
- 1.15375 0 1 cbr 210 ------- 0 0.0 2.0 41 41
r 1.154268 1 2 cbr 210 ------- 0 0.0 2.0 38 38
r 1.155884 0 1 cbr 210 ------- 0 0.0 2.0 40 40
+ 1.155884 1 2 cbr 210 ------- 0 0.0 2.0 40 40
- 1.155884 1 2 cbr 210 ------- 0 0.0 2.0 40 40
+ 1.1575 0 1 cbr 210 ------- 0 0.0 2.0 42 42
- 1.1575 0 1 cbr 210 ------- 0 0.0 2.0 42 42
r 1.158018 1 2 cbr 210 ------- 0 0.0 2.0 39 39
r 1.159634 0 1 cbr 210 ------- 0 0.0 2.0 41 41
+ 1.159634 1 2 cbr 210 ------- 0 0.0 2.0 41 41
- 1.159634 1 2 cbr 210 ------- 0 0.0 2.0 41 41
+ 1.16125 0 1 cbr 210 ------- 0 0.0 2.0 43 43
- 1.16125 0 1 cbr 210 ------- 0 0.0 2.0 43 43
r 1.161768 1 2 cbr 210 ------- 0 0.0 2.0 40 40
r 1.163384 0 1 cbr 210 ------- 0 0.0 2.0 42 42
+ 1.163384 1 2 cbr 210 ------- 0 0.0 2.0 42 42
- 1.163384 1 2 cbr 210 ------- 0 0.0 2.0 42 42
+ 1.165 0 1 cbr 210 ------- 0 0.0 2.0 44 44
- 1.165 0 1 cbr 210 ------- 0 0.0 2.0 44 44
r 1.165518 1 2 cbr 210 ------- 0 0.0 2.0 41 41
r 1.167134 0 1 cbr 210 ------- 0 0.0 2.0 43 43
+ 1.167134 1 2 cbr 210 ------- 0 0.0 2.0 43 43
- 1.167134 1 2 cbr 210 ------- 0 0.0 2.0 43 43
+ 1.16875 0 1 cbr 210 ------- 0 0.0 2.0 45 45
- 1.16875 0 1 cbr 210 ------- 0 0.0 2.0 45 45
r 1.169268 1 2 cbr 210 ------- 0 0.0 2.0 42 42
r 1.170884 0 1 cbr 210 ------- 0 0.0 2.0 44 44
+ 1.170884 1 2 cbr 210 ------- 0 0.0 2.0 44 44
- 1.170884 1 2 cbr 210 ------- 0 0.0 2.0 44 44
+ 1.1725 0 1 cbr 210 ------- 0 0.0 2.0 46 46
- 1.1725 0 1 cbr 210 ------- 0 0.0 2.0 46 46
r 1.173018 1 2 cbr 210 ------- 0 0.0 2.0 43 43
r 1.174634 0 1 cbr 210 ------- 0 0.0 2.0 45 45
+ 1.174634 1 2 cbr 210 ------- 0 0.0 2.0 45 45
- 1.174634 1 2 cbr 210 ------- 0 0.0 2.0 45 45
+ 1.17625 0 1 cbr 210 ------- 0 0.0 2.0 47 47
- 1.17625 0 1 cbr 210 ------- 0 0.0 2.0 47 47
r 1.176768 1 2 cbr 210 ------- 0 0.0 2.0 44 44
r 1.178384 0 1 cbr 210 ------- 0 0.0 2.0 46 46
+ 1.178384 1 2 cbr 210 ------- 0 0.0 2.0 46 46
- 1.178384 1 2 cbr 210 ------- 0 0.0 2.0 46 46
+ 1.18 0 1 cbr 210 ------- 0 0.0 2.0 48 48
- 1.18 0 1 cbr 210 ------- 0 0.0 2.0 48 48
r 1.180518 1 2 cbr 210 ------- 0 0.0 2.0 45 45
r 1.182134 0 1 cbr 210 ------- 0 0.0 2.0 47 47
+ 1.182134 1 2 cbr 210 ------- 0 0.0 2.0 47 47
- 1.182134 1 2 cbr 210 ------- 0 0.0 2.0 47 47
+ 1.18375 0 1 cbr 210 ------- 0 0.0 2.0 49 49
- 1.18375 0 1 cbr 210 ------- 0 0.0 2.0 49 49
r 1.184268 1 2 cbr 210 ------- 0 0.0 2.0 46 46
r 1.185884 0 1 cbr 210 ------- 0 0.0 2.0 48 48
+ 1.185884 1 2 cbr 210 ------- 0 0.0 2.0 48 48
- 1.185884 1 2 cbr 210 ------- 0 0.0 2.0 48 48
+ 1.1875 0 1 cbr 210 ------- 0 0.0 2.0 50 50
- 1.1875 0 1 cbr 210 ------- 0 0.0 2.0 50 50
r 1.188018 1 2 cbr 210 ------- 0 0.0 2.0 47 47
r 1.189634 0 1 cbr 210 ------- 0 0.0 2.0 49 49
+ 1.189634 1 2 cbr 210 ------- 0 0.0 2.0 49 49
- 1.189634 1 2 cbr 210 ------- 0 0.0 2.0 49 49
+ 1.19125 0 1 cbr 210 ------- 0 0.0 2.0 51 51
- 1.19125 0 1 cbr 210 ------- 0 0.0 2.0 51 51
r 1.191768 1 2 cbr 210 ------- 0 0.0 2.0 48 48
r 1.193384 0 1 cbr 210 ------- 0 0.0 2.0 50 50
+ 1.193384 1 2 cbr 210 ------- 0 0.0 2.0 50 50
- 1.193384 1 2 cbr 210 ------- 0 0.0 2.0 50 50
+ 1.195 0 1 cbr 210 ------- 0 0.0 2.0 52 52
- 1.195 0 1 cbr 210 ------- 0 0.0 2.0 52 52
r 1.195518 1 2 cbr 210 ------- 0 0.0 2.0 49 49
r 1.197134 0 1 cbr 210 ------- 0 0.0 2.0 51 51
+ 1.197134 1 2 cbr 210 ------- 0 0.0 2.0 51 51
- 1.197134 1 2 cbr 210 ------- 0 0.0 2.0 51 51
+ 1.19875 0 1 cbr 210 ------- 0 0.0 2.0 53 53
- 1.19875 0 1 cbr 210 ------- 0 0.0 2.0 53 53
r 1.199268 1 2 cbr 210 ------- 0 0.0 2.0 50 50
r 1.200884 0 1 cbr 210 ------- 0 0.0 2.0 52 52
+ 1.200884 1 2 cbr 210 ------- 0 0.0 2.0 52 52
- 1.200884 1 2 cbr 210 ------- 0 0.0 2.0 52 52
+ 1.2025 0 1 cbr 210 ------- 0 0.0 2.0 54 54
- 1.2025 0 1 cbr 210 ------- 0 0.0 2.0 54 54
r 1.203018 1 2 cbr 210 ------- 0 0.0 2.0 51 51
r 1.204634 0 1 cbr 210 ------- 0 0.0 2.0 53 53
+ 1.204634 1 2 cbr 210 ------- 0 0.0 2.0 53 53
- 1.204634 1 2 cbr 210 ------- 0 0.0 2.0 53 53
+ 1.20625 0 1 cbr 210 ------- 0 0.0 2.0 55 55
- 1.20625 0 1 cbr 210 ------- 0 0.0 2.0 55 55
r 1.206768 1 2 cbr 210 ------- 0 0.0 2.0 52 52
r 1.208384 0 1 cbr 210 ------- 0 0.0 2.0 54 54
+ 1.208384 1 2 cbr 210 ------- 0 0.0 2.0 54 54
- 1.208384 1 2 cbr 210 ------- 0 0.0 2.0 54 54
+ 1.21 0 1 cbr 210 ------- 0 0.0 2.0 56 56
- 1.21 0 1 cbr 210 ------- 0 0.0 2.0 56 56
r 1.210518 1 2 cbr 210 ------- 0 0.0 2.0 53 53
r 1.212134 0 1 cbr 210 ------- 0 0.0 2.0 55 55
+ 1.212134 1 2 cbr 210 ------- 0 0.0 2.0 55 55
- 1.212134 1 2 cbr 210 ------- 0 0.0 2.0 55 55
+ 1.21375 0 1 cbr 210 ------- 0 0.0 2.0 57 57
- 1.21375 0 1 cbr 210 ------- 0 0.0 2.0 57 57
r 1.214268 1 2 cbr 210 ------- 0 0.0 2.0 54 54
r 1.215884 0 1 cbr 210 ------- 0 0.0 2.0 56 56
+ 1.215884 1 2 cbr 210 ------- 0 0.0 2.0 56 56
- 1.215884 1 2 cbr 210 ------- 0 0.0 2.0 56 56
+ 1.2175 0 1 cbr 210 ------- 0 0.0 2.0 58 58
- 1.2175 0 1 cbr 210 ------- 0 0.0 2.0 58 58
r 1.218018 1 2 cbr 210 ------- 0 0.0 2.0 55 55
r 1.219634 0 1 cbr 210 ------- 0 0.0 2.0 57 57
+ 1.219634 1 2 cbr 210 ------- 0 0.0 2.0 57 57
- 1.219634 1 2 cbr 210 ------- 0 0.0 2.0 57 57
+ 1.22125 0 1 cbr 210 ------- 0 0.0 2.0 59 59
- 1.22125 0 1 cbr 210 ------- 0 0.0 2.0 59 59
r 1.221768 1 2 cbr 210 ------- 0 0.0 2.0 56 56
r 1.223384 0 1 cbr 210 ------- 0 0.0 2.0 58 58
+ 1.223384 1 2 cbr 210 ------- 0 0.0 2.0 58 58
- 1.223384 1 2 cbr 210 ------- 0 0.0 2.0 58 58
+ 1.225 0 1 cbr 210 ------- 0 0.0 2.0 60 60
- 1.225 0 1 cbr 210 ------- 0 0.0 2.0 60 60
r 1.225518 1 2 cbr 210 ------- 0 0.0 2.0 57 57
r 1.227134 0 1 cbr 210 ------- 0 0.0 2.0 59 59
+ 1.227134 1 2 cbr 210 ------- 0 0.0 2.0 59 59
- 1.227134 1 2 cbr 210 ------- 0 0.0 2.0 59 59
+ 1.22875 0 1 cbr 210 ------- 0 0.0 2.0 61 61
- 1.22875 0 1 cbr 210 ------- 0 0.0 2.0 61 61
r 1.229268 1 2 cbr 210 ------- 0 0.0 2.0 58 58
r 1.230884 0 1 cbr 210 ------- 0 0.0 2.0 60 60
+ 1.230884 1 2 cbr 210 ------- 0 0.0 2.0 60 60
- 1.230884 1 2 cbr 210 ------- 0 0.0 2.0 60 60
+ 1.2325 0 1 cbr 210 ------- 0 0.0 2.0 62 62
- 1.2325 0 1 cbr 210 ------- 0 0.0 2.0 62 62
r 1.233018 1 2 cbr 210 ------- 0 0.0 2.0 59 59
r 1.234634 0 1 cbr 210 ------- 0 0.0 2.0 61 61
+ 1.234634 1 2 cbr 210 ------- 0 0.0 2.0 61 61
- 1.234634 1 2 cbr 210 ------- 0 0.0 2.0 61 61
+ 1.23625 0 1 cbr 210 ------- 0 0.0 2.0 63 63
- 1.23625 0 1 cbr 210 ------- 0 0.0 2.0 63 63
r 1.236768 1 2 cbr 210 ------- 0 0.0 2.0 60 60
r 1.238384 0 1 cbr 210 ------- 0 0.0 2.0 62 62
+ 1.238384 1 2 cbr 210 ------- 0 0.0 2.0 62 62
- 1.238384 1 2 cbr 210 ------- 0 0.0 2.0 62 62
+ 1.24 0 1 cbr 210 ------- 0 0.0 2.0 64 64
- 1.24 0 1 cbr 210 ------- 0 0.0 2.0 64 64
r 1.240518 1 2 cbr 210 ------- 0 0.0 2.0 61 61
r 1.242134 0 1 cbr 210 ------- 0 0.0 2.0 63 63
+ 1.242134 1 2 cbr 210 ------- 0 0.0 2.0 63 63
- 1.242134 1 2 cbr 210 ------- 0 0.0 2.0 63 63
+ 1.24375 0 1 cbr 210 ------- 0 0.0 2.0 65 65
- 1.24375 0 1 cbr 210 ------- 0 0.0 2.0 65 65
r 1.244268 1 2 cbr 210 ------- 0 0.0 2.0 62 62
r 1.245884 0 1 cbr 210 ------- 0 0.0 2.0 64 64
+ 1.245884 1 2 cbr 210 ------- 0 0.0 2.0 64 64
- 1.245884 1 2 cbr 210 ------- 0 0.0 2.0 64 64
+ 1.2475 0 1 cbr 210 ------- 0 0.0 2.0 66 66
- 1.2475 0 1 cbr 210 ------- 0 0.0 2.0 66 66
r 1.248018 1 2 cbr 210 ------- 0 0.0 2.0 63 63
r 1.249634 0 1 cbr 210 ------- 0 0.0 2.0 65 65
+ 1.249634 1 2 cbr 210 ------- 0 0.0 2.0 65 65
- 1.249634 1 2 cbr 210 ------- 0 0.0 2.0 65 65
+ 1.25125 0 1 cbr 210 ------- 0 0.0 2.0 67 67
- 1.25125 0 1 cbr 210 ------- 0 0.0 2.0 67 67
r 1.251768 1 2 cbr 210 ------- 0 0.0 2.0 64 64
r 1.253384 0 1 cbr 210 ------- 0 0.0 2.0 66 66
+ 1.253384 1 2 cbr 210 ------- 0 0.0 2.0 66 66
- 1.253384 1 2 cbr 210 ------- 0 0.0 2.0 66 66
+ 1.255 0 1 cbr 210 ------- 0 0.0 2.0 68 68
- 1.255 0 1 cbr 210 ------- 0 0.0 2.0 68 68
r 1.255518 1 2 cbr 210 ------- 0 0.0 2.0 65 65
r 1.257134 0 1 cbr 210 ------- 0 0.0 2.0 67 67
+ 1.257134 1 2 cbr 210 ------- 0 0.0 2.0 67 67
- 1.257134 1 2 cbr 210 ------- 0 0.0 2.0 67 67
+ 1.25875 0 1 cbr 210 ------- 0 0.0 2.0 69 69
- 1.25875 0 1 cbr 210 ------- 0 0.0 2.0 69 69
r 1.259268 1 2 cbr 210 ------- 0 0.0 2.0 66 66
r 1.260884 0 1 cbr 210 ------- 0 0.0 2.0 68 68
+ 1.260884 1 2 cbr 210 ------- 0 0.0 2.0 68 68
- 1.260884 1 2 cbr 210 ------- 0 0.0 2.0 68 68
+ 1.2625 0 1 cbr 210 ------- 0 0.0 2.0 70 70
- 1.2625 0 1 cbr 210 ------- 0 0.0 2.0 70 70
r 1.263018 1 2 cbr 210 ------- 0 0.0 2.0 67 67
r 1.264634 0 1 cbr 210 ------- 0 0.0 2.0 69 69
+ 1.264634 1 2 cbr 210 ------- 0 0.0 2.0 69 69
- 1.264634 1 2 cbr 210 ------- 0 0.0 2.0 69 69
+ 1.26625 0 1 cbr 210 ------- 0 0.0 2.0 71 71
- 1.26625 0 1 cbr 210 ------- 0 0.0 2.0 71 71
r 1.266768 1 2 cbr 210 ------- 0 0.0 2.0 68 68
r 1.268384 0 1 cbr 210 ------- 0 0.0 2.0 70 70
+ 1.268384 1 2 cbr 210 ------- 0 0.0 2.0 70 70
- 1.268384 1 2 cbr 210 ------- 0 0.0 2.0 70 70
+ 1.27 0 1 cbr 210 ------- 0 0.0 2.0 72 72
- 1.27 0 1 cbr 210 ------- 0 0.0 2.0 72 72
r 1.270518 1 2 cbr 210 ------- 0 0.0 2.0 69 69
r 1.272134 0 1 cbr 210 ------- 0 0.0 2.0 71 71
+ 1.272134 1 2 cbr 210 ------- 0 0.0 2.0 71 71
- 1.272134 1 2 cbr 210 ------- 0 0.0 2.0 71 71
+ 1.27375 0 1 cbr 210 ------- 0 0.0 2.0 73 73
- 1.27375 0 1 cbr 210 ------- 0 0.0 2.0 73 73
r 1.274268 1 2 cbr 210 ------- 0 0.0 2.0 70 70
r 1.275884 0 1 cbr 210 ------- 0 0.0 2.0 72 72
+ 1.275884 1 2 cbr 210 ------- 0 0.0 2.0 72 72
- 1.275884 1 2 cbr 210 ------- 0 0.0 2.0 72 72
+ 1.2775 0 1 cbr 210 ------- 0 0.0 2.0 74 74
- 1.2775 0 1 cbr 210 ------- 0 0.0 2.0 74 74
r 1.278018 1 2 cbr 210 ------- 0 0.0 2.0 71 71
r 1.279634 0 1 cbr 210 ------- 0 0.0 2.0 73 73
+ 1.279634 1 2 cbr 210 ------- 0 0.0 2.0 73 73
- 1.279634 1 2 cbr 210 ------- 0 0.0 2.0 73 73
+ 1.28125 0 1 cbr 210 ------- 0 0.0 2.0 75 75
- 1.28125 0 1 cbr 210 ------- 0 0.0 2.0 75 75
r 1.281768 1 2 cbr 210 ------- 0 0.0 2.0 72 72
r 1.283384 0 1 cbr 210 ------- 0 0.0 2.0 74 74
+ 1.283384 1 2 cbr 210 ------- 0 0.0 2.0 74 74
- 1.283384 1 2 cbr 210 ------- 0 0.0 2.0 74 74
+ 1.285 0 1 cbr 210 ------- 0 0.0 2.0 76 76
- 1.285 0 1 cbr 210 ------- 0 0.0 2.0 76 76
r 1.285518 1 2 cbr 210 ------- 0 0.0 2.0 73 73
r 1.287134 0 1 cbr 210 ------- 0 0.0 2.0 75 75
+ 1.287134 1 2 cbr 210 ------- 0 0.0 2.0 75 75
- 1.287134 1 2 cbr 210 ------- 0 0.0 2.0 75 75
+ 1.28875 0 1 cbr 210 ------- 0 0.0 2.0 77 77
- 1.28875 0 1 cbr 210 ------- 0 0.0 2.0 77 77
r 1.289268 1 2 cbr 210 ------- 0 0.0 2.0 74 74
r 1.290884 0 1 cbr 210 ------- 0 0.0 2.0 76 76
+ 1.290884 1 2 cbr 210 ------- 0 0.0 2.0 76 76
- 1.290884 1 2 cbr 210 ------- 0 0.0 2.0 76 76
+ 1.2925 0 1 cbr 210 ------- 0 0.0 2.0 78 78
- 1.2925 0 1 cbr 210 ------- 0 0.0 2.0 78 78
r 1.293018 1 2 cbr 210 ------- 0 0.0 2.0 75 75
r 1.294634 0 1 cbr 210 ------- 0 0.0 2.0 77 77
+ 1.294634 1 2 cbr 210 ------- 0 0.0 2.0 77 77
- 1.294634 1 2 cbr 210 ------- 0 0.0 2.0 77 77
+ 1.29625 0 1 cbr 210 ------- 0 0.0 2.0 79 79
- 1.29625 0 1 cbr 210 ------- 0 0.0 2.0 79 79
r 1.296768 1 2 cbr 210 ------- 0 0.0 2.0 76 76
r 1.298384 0 1 cbr 210 ------- 0 0.0 2.0 78 78
+ 1.298384 1 2 cbr 210 ------- 0 0.0 2.0 78 78
- 1.298384 1 2 cbr 210 ------- 0 0.0 2.0 78 78
+ 1.3 0 1 cbr 210 ------- 0 0.0 2.0 80 80
- 1.3 0 1 cbr 210 ------- 0 0.0 2.0 80 80
r 1.300518 1 2 cbr 210 ------- 0 0.0 2.0 77 77
r 1.302134 0 1 cbr 210 ------- 0 0.0 2.0 79 79
+ 1.302134 1 2 cbr 210 ------- 0 0.0 2.0 79 79
- 1.302134 1 2 cbr 210 ------- 0 0.0 2.0 79 79
+ 1.30375 0 1 cbr 210 ------- 0 0.0 2.0 81 81
- 1.30375 0 1 cbr 210 ------- 0 0.0 2.0 81 81
r 1.304268 1 2 cbr 210 ------- 0 0.0 2.0 78 78
r 1.305884 0 1 cbr 210 ------- 0 0.0 2.0 80 80
+ 1.305884 1 2 cbr 210 ------- 0 0.0 2.0 80 80
- 1.305884 1 2 cbr 210 ------- 0 0.0 2.0 80 80
+ 1.3075 0 1 cbr 210 ------- 0 0.0 2.0 82 82
- 1.3075 0 1 cbr 210 ------- 0 0.0 2.0 82 82
r 1.308018 1 2 cbr 210 ------- 0 0.0 2.0 79 79
r 1.309634 0 1 cbr 210 ------- 0 0.0 2.0 81 81
+ 1.309634 1 2 cbr 210 ------- 0 0.0 2.0 81 81
- 1.309634 1 2 cbr 210 ------- 0 0.0 2.0 81 81
+ 1.31125 0 1 cbr 210 ------- 0 0.0 2.0 83 83
- 1.31125 0 1 cbr 210 ------- 0 0.0 2.0 83 83
r 1.311768 1 2 cbr 210 ------- 0 0.0 2.0 80 80
r 1.313384 0 1 cbr 210 ------- 0 0.0 2.0 82 82
+ 1.313384 1 2 cbr 210 ------- 0 0.0 2.0 82 82
- 1.313384 1 2 cbr 210 ------- 0 0.0 2.0 82 82
+ 1.315 0 1 cbr 210 ------- 0 0.0 2.0 84 84
- 1.315 0 1 cbr 210 ------- 0 0.0 2.0 84 84
r 1.315518 1 2 cbr 210 ------- 0 0.0 2.0 81 81
r 1.317134 0 1 cbr 210 ------- 0 0.0 2.0 83 83
+ 1.317134 1 2 cbr 210 ------- 0 0.0 2.0 83 83
- 1.317134 1 2 cbr 210 ------- 0 0.0 2.0 83 83
+ 1.31875 0 1 cbr 210 ------- 0 0.0 2.0 85 85
- 1.31875 0 1 cbr 210 ------- 0 0.0 2.0 85 85
r 1.319268 1 2 cbr 210 ------- 0 0.0 2.0 82 82
r 1.320884 0 1 cbr 210 ------- 0 0.0 2.0 84 84
+ 1.320884 1 2 cbr 210 ------- 0 0.0 2.0 84 84
- 1.320884 1 2 cbr 210 ------- 0 0.0 2.0 84 84
+ 1.3225 0 1 cbr 210 ------- 0 0.0 2.0 86 86
- 1.3225 0 1 cbr 210 ------- 0 0.0 2.0 86 86
r 1.323018 1 2 cbr 210 ------- 0 0.0 2.0 83 83
r 1.324634 0 1 cbr 210 ------- 0 0.0 2.0 85 85
+ 1.324634 1 2 cbr 210 ------- 0 0.0 2.0 85 85
- 1.324634 1 2 cbr 210 ------- 0 0.0 2.0 85 85
+ 1.32625 0 1 cbr 210 ------- 0 0.0 2.0 87 87
- 1.32625 0 1 cbr 210 ------- 0 0.0 2.0 87 87
r 1.326768 1 2 cbr 210 ------- 0 0.0 2.0 84 84
r 1.328384 0 1 cbr 210 ------- 0 0.0 2.0 86 86
+ 1.328384 1 2 cbr 210 ------- 0 0.0 2.0 86 86
- 1.328384 1 2 cbr 210 ------- 0 0.0 2.0 86 86
+ 1.33 0 1 cbr 210 ------- 0 0.0 2.0 88 88
- 1.33 0 1 cbr 210 ------- 0 0.0 2.0 88 88
r 1.330518 1 2 cbr 210 ------- 0 0.0 2.0 85 85
r 1.332134 0 1 cbr 210 ------- 0 0.0 2.0 87 87
+ 1.332134 1 2 cbr 210 ------- 0 0.0 2.0 87 87
- 1.332134 1 2 cbr 210 ------- 0 0.0 2.0 87 87
+ 1.33375 0 1 cbr 210 ------- 0 0.0 2.0 89 89
- 1.33375 0 1 cbr 210 ------- 0 0.0 2.0 89 89
r 1.334268 1 2 cbr 210 ------- 0 0.0 2.0 86 86
r 1.335884 0 1 cbr 210 ------- 0 0.0 2.0 88 88
+ 1.335884 1 2 cbr 210 ------- 0 0.0 2.0 88 88
- 1.335884 1 2 cbr 210 ------- 0 0.0 2.0 88 88
+ 1.3375 0 1 cbr 210 ------- 0 0.0 2.0 90 90
- 1.3375 0 1 cbr 210 ------- 0 0.0 2.0 90 90
r 1.338018 1 2 cbr 210 ------- 0 0.0 2.0 87 87
r 1.339634 0 1 cbr 210 ------- 0 0.0 2.0 89 89
+ 1.339634 1 2 cbr 210 ------- 0 0.0 2.0 89 89
- 1.339634 1 2 cbr 210 ------- 0 0.0 2.0 89 89
+ 1.34125 0 1 cbr 210 ------- 0 0.0 2.0 91 91
- 1.34125 0 1 cbr 210 ------- 0 0.0 2.0 91 91
r 1.341768 1 2 cbr 210 ------- 0 0.0 2.0 88 88
r 1.343384 0 1 cbr 210 ------- 0 0.0 2.0 90 90
+ 1.343384 1 2 cbr 210 ------- 0 0.0 2.0 90 90
- 1.343384 1 2 cbr 210 ------- 0 0.0 2.0 90 90
+ 1.345 0 1 cbr 210 ------- 0 0.0 2.0 92 92
- 1.345 0 1 cbr 210 ------- 0 0.0 2.0 92 92
r 1.345518 1 2 cbr 210 ------- 0 0.0 2.0 89 89
r 1.347134 0 1 cbr 210 ------- 0 0.0 2.0 91 91
+ 1.347134 1 2 cbr 210 ------- 0 0.0 2.0 91 91
- 1.347134 1 2 cbr 210 ------- 0 0.0 2.0 91 91
+ 1.34875 0 1 cbr 210 ------- 0 0.0 2.0 93 93
- 1.34875 0 1 cbr 210 ------- 0 0.0 2.0 93 93
r 1.349268 1 2 cbr 210 ------- 0 0.0 2.0 90 90
r 1.350884 0 1 cbr 210 ------- 0 0.0 2.0 92 92
+ 1.350884 1 2 cbr 210 ------- 0 0.0 2.0 92 92
- 1.350884 1 2 cbr 210 ------- 0 0.0 2.0 92 92
+ 1.3525 0 1 cbr 210 ------- 0 0.0 2.0 94 94
- 1.3525 0 1 cbr 210 ------- 0 0.0 2.0 94 94
r 1.353018 1 2 cbr 210 ------- 0 0.0 2.0 91 91
r 1.354634 0 1 cbr 210 ------- 0 0.0 2.0 93 93
+ 1.354634 1 2 cbr 210 ------- 0 0.0 2.0 93 93
- 1.354634 1 2 cbr 210 ------- 0 0.0 2.0 93 93
+ 1.35625 0 1 cbr 210 ------- 0 0.0 2.0 95 95
- 1.35625 0 1 cbr 210 ------- 0 0.0 2.0 95 95
r 1.356768 1 2 cbr 210 ------- 0 0.0 2.0 92 92
r 1.358384 0 1 cbr 210 ------- 0 0.0 2.0 94 94
+ 1.358384 1 2 cbr 210 ------- 0 0.0 2.0 94 94
- 1.358384 1 2 cbr 210 ------- 0 0.0 2.0 94 94
+ 1.36 0 1 cbr 210 ------- 0 0.0 2.0 96 96
- 1.36 0 1 cbr 210 ------- 0 0.0 2.0 96 96
r 1.360518 1 2 cbr 210 ------- 0 0.0 2.0 93 93
r 1.362134 0 1 cbr 210 ------- 0 0.0 2.0 95 95
+ 1.362134 1 2 cbr 210 ------- 0 0.0 2.0 95 95
- 1.362134 1 2 cbr 210 ------- 0 0.0 2.0 95 95
+ 1.36375 0 1 cbr 210 ------- 0 0.0 2.0 97 97
- 1.36375 0 1 cbr 210 ------- 0 0.0 2.0 97 97
r 1.364268 1 2 cbr 210 ------- 0 0.0 2.0 94 94
r 1.365884 0 1 cbr 210 ------- 0 0.0 2.0 96 96
+ 1.365884 1 2 cbr 210 ------- 0 0.0 2.0 96 96
- 1.365884 1 2 cbr 210 ------- 0 0.0 2.0 96 96
+ 1.3675 0 1 cbr 210 ------- 0 0.0 2.0 98 98
- 1.3675 0 1 cbr 210 ------- 0 0.0 2.0 98 98
r 1.368018 1 2 cbr 210 ------- 0 0.0 2.0 95 95
r 1.369634 0 1 cbr 210 ------- 0 0.0 2.0 97 97
+ 1.369634 1 2 cbr 210 ------- 0 0.0 2.0 97 97
- 1.369634 1 2 cbr 210 ------- 0 0.0 2.0 97 97
+ 1.37125 0 1 cbr 210 ------- 0 0.0 2.0 99 99
- 1.37125 0 1 cbr 210 ------- 0 0.0 2.0 99 99
r 1.371768 1 2 cbr 210 ------- 0 0.0 2.0 96 96
r 1.373384 0 1 cbr 210 ------- 0 0.0 2.0 98 98
+ 1.373384 1 2 cbr 210 ------- 0 0.0 2.0 98 98
- 1.373384 1 2 cbr 210 ------- 0 0.0 2.0 98 98
+ 1.375 0 1 cbr 210 ------- 0 0.0 2.0 100 100
- 1.375 0 1 cbr 210 ------- 0 0.0 2.0 100 100
r 1.375518 1 2 cbr 210 ------- 0 0.0 2.0 97 97
r 1.377134 0 1 cbr 210 ------- 0 0.0 2.0 99 99
+ 1.377134 1 2 cbr 210 ------- 0 0.0 2.0 99 99
- 1.377134 1 2 cbr 210 ------- 0 0.0 2.0 99 99
+ 1.37875 0 1 cbr 210 ------- 0 0.0 2.0 101 101
- 1.37875 0 1 cbr 210 ------- 0 0.0 2.0 101 101
r 1.379268 1 2 cbr 210 ------- 0 0.0 2.0 98 98
r 1.380884 0 1 cbr 210 ------- 0 0.0 2.0 100 100
+ 1.380884 1 2 cbr 210 ------- 0 0.0 2.0 100 100
- 1.380884 1 2 cbr 210 ------- 0 0.0 2.0 100 100
+ 1.3825 0 1 cbr 210 ------- 0 0.0 2.0 102 102
- 1.3825 0 1 cbr 210 ------- 0 0.0 2.0 102 102
r 1.383018 1 2 cbr 210 ------- 0 0.0 2.0 99 99
r 1.384634 0 1 cbr 210 ------- 0 0.0 2.0 101 101
+ 1.384634 1 2 cbr 210 ------- 0 0.0 2.0 101 101
- 1.384634 1 2 cbr 210 ------- 0 0.0 2.0 101 101
+ 1.38625 0 1 cbr 210 ------- 0 0.0 2.0 103 103
- 1.38625 0 1 cbr 210 ------- 0 0.0 2.0 103 103
r 1.386768 1 2 cbr 210 ------- 0 0.0 2.0 100 100
r 1.388384 0 1 cbr 210 ------- 0 0.0 2.0 102 102
+ 1.388384 1 2 cbr 210 ------- 0 0.0 2.0 102 102
- 1.388384 1 2 cbr 210 ------- 0 0.0 2.0 102 102
+ 1.39 0 1 cbr 210 ------- 0 0.0 2.0 104 104
- 1.39 0 1 cbr 210 ------- 0 0.0 2.0 104 104
r 1.390518 1 2 cbr 210 ------- 0 0.0 2.0 101 101
r 1.392134 0 1 cbr 210 ------- 0 0.0 2.0 103 103
+ 1.392134 1 2 cbr 210 ------- 0 0.0 2.0 103 103
- 1.392134 1 2 cbr 210 ------- 0 0.0 2.0 103 103
+ 1.39375 0 1 cbr 210 ------- 0 0.0 2.0 105 105
- 1.39375 0 1 cbr 210 ------- 0 0.0 2.0 105 105
r 1.394268 1 2 cbr 210 ------- 0 0.0 2.0 102 102
r 1.395884 0 1 cbr 210 ------- 0 0.0 2.0 104 104
+ 1.395884 1 2 cbr 210 ------- 0 0.0 2.0 104 104
- 1.395884 1 2 cbr 210 ------- 0 0.0 2.0 104 104
+ 1.3975 0 1 cbr 210 ------- 0 0.0 2.0 106 106
- 1.3975 0 1 cbr 210 ------- 0 0.0 2.0 106 106
r 1.398018 1 2 cbr 210 ------- 0 0.0 2.0 103 103
r 1.399634 0 1 cbr 210 ------- 0 0.0 2.0 105 105
+ 1.399634 1 2 cbr 210 ------- 0 0.0 2.0 105 105
- 1.399634 1 2 cbr 210 ------- 0 0.0 2.0 105 105
+ 1.40125 0 1 cbr 210 ------- 0 0.0 2.0 107 107
- 1.40125 0 1 cbr 210 ------- 0 0.0 2.0 107 107
r 1.401768 1 2 cbr 210 ------- 0 0.0 2.0 104 104
r 1.403384 0 1 cbr 210 ------- 0 0.0 2.0 106 106
+ 1.403384 1 2 cbr 210 ------- 0 0.0 2.0 106 106
- 1.403384 1 2 cbr 210 ------- 0 0.0 2.0 106 106
+ 1.405 0 1 cbr 210 ------- 0 0.0 2.0 108 108
- 1.405 0 1 cbr 210 ------- 0 0.0 2.0 108 108
r 1.405518 1 2 cbr 210 ------- 0 0.0 2.0 105 105
r 1.407134 0 1 cbr 210 ------- 0 0.0 2.0 107 107
+ 1.407134 1 2 cbr 210 ------- 0 0.0 2.0 107 107